# vtk DataFile Version 5.1
vtk output
ASCII
DATASET POLYDATA
POINTS 516 float
269.083 65.9143 256.985 269.798 66.0725 252.07 270.247 66.5812 247.201 
275.137 70.6182 244.219 266.436 62.7961 242.719 275.003 70.6014 241.056 
274.848 70.6154 237.895 274.738 70.5498 234.735 274.647 70.453 231.576 
274.601 70.2654 228.426 277.181 71.8204 246.307 279.259 72.9564 248.398 
281.37 74.0221 250.493 283.514 74.9811 252.588 285.697 75.7933 254.685 
265.313 60.9855 243.759 264.346 59.0969 244.779 263.531 57.1493 245.784 
262.874 55.15 246.782 262.348 53.1211 247.777 261.976 51.0905 248.777 
261.772 49.0654 249.765 266.682 63.486 240.461 266.958 64.1504 238.199 
267.306 64.7509 235.931 267.724 65.2743 233.664 267.896 65.3911 231.32 
267.778 65.1285 228.999 267.415 64.4951 226.796 272.755 69.0531 227.585 
271.014 67.7145 226.76 276.503 71.2437 227.405 278.445 72.125 226.387 
280.411 72.9193 225.364 282.417 73.5895 224.339 284.44 74.1149 223.308 
286.459 74.4402 222.258 288.454 74.5827 221.184 265.881 62.7276 226.972 
264.495 60.8737 227.163 263.274 58.9255 227.379 262.202 56.9234 227.609 
261.317 54.8691 227.842 260.62 52.7666 228.085 260.076 50.6256 228.339 
261.885 49.1404 251.869 261.914 49.2245 253.979 261.852 49.3109 256.084 
261.727 49.3888 258.188 261.507 47.5084 248.38 261.267 45.9678 246.982 
261.075 44.4235 245.574 260.939 42.8909 244.153 260.89 41.3827 242.721 
260.974 39.9215 241.267 261.162 38.5005 239.794 261.502 37.1721 238.304 
287.516 76.3603 253.8 289.355 76.8 252.919 291.198 77.09 252.042 
293.034 77.2265 251.168 294.84 77.1492 250.308 296.58 76.8665 249.47 
298.23 76.3774 248.646 299.807 75.7112 247.827 285.07 75.5451 256.684 
284.432 75.3245 258.684 299.626 75.5027 245.779 299.409 75.2285 243.739 
299.189 74.9001 241.7 298.959 74.5654 239.652 298.719 74.2118 237.607 
298.472 73.8143 235.565 298.226 73.4385 233.511 297.983 73.0863 231.449 
301.234 75.1561 249.186 302.551 74.4672 250.56 303.758 73.6604 251.943 
304.801 72.7537 253.314 305.695 71.6962 254.674 306.42 70.5492 256.008 
307.027 69.311 257.337 262.428 35.4485 238.987 263.477 33.8214 239.669 
264.656 32.3128 240.349 265.936 30.9323 241.029 267.319 29.675 241.713 
268.784 28.5923 242.405 270.363 27.6296 243.09 271.98 26.7459 243.809 
261.036 37.9092 236.397 260.65 38.6773 234.494 260.374 39.475 232.594 
260.195 40.3032 230.698 260.085 41.1429 228.813 260.183 41.6479 226.85 
260.516 41.8028 224.923 261.076 41.6707 223.095 259.889 50.0651 230.333 
259.824 49.4919 232.318 259.841 48.9129 234.302 259.915 48.3295 236.287 
260.082 47.7327 238.258 260.308 47.3361 240.244 260.605 47.2368 242.209 
260.025 49.5736 226.543 260.117 48.516 224.774 260.373 47.4596 223.049 
260.844 46.8111 221.298 261.5 46.5743 219.574 262.264 46.6807 217.914 
263.108 47.0406 216.288 264.002 47.5786 214.702 288.275 74.6835 219.092 
288.1 74.768 216.999 287.942 74.7825 214.909 287.805 74.6754 212.835 
287.686 74.4373 210.779 287.587 74.1259 208.731 287.506 73.782 206.68 
287.443 73.3779 204.65 290.071 74.4903 222.493 291.662 74.2765 223.81 
293.208 73.9679 225.144 294.725 73.5916 226.496 296.293 73.1557 227.747 
272.098 26.8084 245.883 272.271 26.9519 247.935 272.507 27.1962 249.969 
272.803 27.5657 251.948 273.18 28.0512 253.879 273.607 28.6492 255.756 
274.078 29.3181 257.606 273.263 26.0927 242.325 274.605 25.5979 240.847 
275.977 25.2517 239.398 277.371 25.0755 237.98 278.792 25.0151 236.576 
280.219 25.0998 235.207 281.667 25.2857 233.857 283.11 25.5739 232.512 
264.858 46.1081 213.605 265.878 44.6879 212.612 267.029 43.3781 211.737 
268.328 42.1976 211.003 269.758 41.1805 210.4 271.284 40.2834 209.894 
272.877 39.5137 209.47 274.559 38.8382 209.12 264.123 49.6262 214.588 
264.456 51.5923 214.574 264.945 53.5296 214.631 265.555 55.4161 214.732 
266.267 57.246 214.868 267.126 58.9781 215.064 268.095 60.6611 215.302 
269.244 62.2071 215.164 261.844 39.7935 222.959 262.788 38.0969 222.949 
263.931 36.5705 223.039 265.194 35.1947 223.205 266.55 33.932 223.441 
267.98 32.7971 223.76 269.497 31.7892 224.142 271.068 30.8722 224.575 
285.607 72.6384 204.011 283.882 71.6938 203.427 282.266 70.6147 202.889 
280.816 69.3727 202.417 279.499 68.004 202 278.31 66.5386 201.646 
277.231 64.9833 201.358 276.232 63.3545 201.125 289.297 73.4343 203.755 
291.105 73.1993 202.924 292.836 72.7413 202.14 294.419 72.0617 201.452 
295.794 71.1347 200.835 296.986 70.0308 200.295 297.981 68.7865 199.805 
298.791 67.4429 199.386 299.948 71.961 230.798 301.73 70.623 230.201 
303.335 69.1152 229.663 304.778 67.4716 229.164 306.054 65.6982 228.704 
307.159 63.8254 228.282 308.115 61.8842 227.884 307.888 61.2087 225.653 
307.635 60.5193 223.421 307.342 59.8213 221.194 307.023 59.1186 218.967 
306.672 58.4126 216.745 306.297 57.6977 214.525 305.871 56.9812 212.322 
309.041 60.8853 229.8 309.879 59.8887 231.736 310.609 58.862 233.698 
311.225 57.8319 235.688 311.743 56.8124 237.702 312.177 55.7807 239.737 
312.499 54.7566 241.791 298.302 66.7754 197.623 297.663 66.0093 196.001 
296.897 65.1693 194.563 295.983 64.2508 193.345 294.958 63.293 192.303 
293.837 62.2949 191.42 292.669 61.2984 190.769 291.472 60.3024 190.348 
299.813 66.6801 200.885 300.696 65.8492 202.429 301.486 64.9761 204.017 
302.214 64.0771 205.635 302.869 63.145 207.285 303.449 62.383 208.996 
303.97 61.8871 210.763 304.394 61.7523 212.588 270.036 61.9874 212.982 
270.846 61.7685 210.793 271.652 61.5573 208.595 272.512 61.3194 206.42 
273.288 60.8497 204.27 273.928 60.0459 202.222 274.439 58.8656 200.401 
269.705 63.6793 216.864 270.279 65.0661 218.614 270.927 66.3287 220.388 
271.805 67.5201 221.976 272.944 68.6588 223.225 274.355 69.728 224.056 
276.61 62.437 199.313 277.107 61.4877 197.571 277.757 60.5143 195.961 
278.731 59.7792 194.493 279.927 59.2231 193.247 281.293 58.7722 192.21 
282.506 58.2931 191.505 283.426 57.8205 191.091 275.147 37.4472 210.494 
275.765 36.1382 211.934 276.406 34.9128 213.443 277.057 33.7463 214.997 
277.718 32.6525 216.595 278.38 31.6126 218.229 279.404 30.7054 219.705 
280.736 29.9398 220.969 275.499 39.7368 207.518 276.479 40.6875 205.965 
277.462 41.695 204.447 278.465 42.712 202.942 279.489 43.7711 201.477 
280.513 44.8717 200.041 281.552 45.9953 198.621 282.762 47.0179 197.302 
271.074 30.1138 226.504 271.11 29.4054 228.45 271.176 28.7818 230.418 
271.272 28.2219 232.404 271.422 27.7358 234.397 271.331 27.4203 236.39 
271.015 27.3288 238.318 272.483 30.9525 223.069 273.908 31.1152 221.596 
285.244 25.3172 233.414 287.358 25.2077 234.354 289.442 25.2717 235.35 
291.487 25.4551 236.365 293.44 25.8279 237.427 295.275 26.3808 238.507 
297.031 27.0965 239.617 282.309 26.233 230.397 281.526 26.9758 228.313 
280.745 27.7614 226.247 306.209 54.9255 212.044 306.399 52.8615 211.825 
306.417 50.8254 211.69 306.233 48.8292 211.653 305.86 46.8891 211.715 
305.296 45.0767 211.904 304.576 43.4269 212.214 303.717 41.8858 212.614 
303.775 63.5602 213.281 303.058 65.307 213.993 302.223 66.96 214.716 
301.231 68.4868 215.456 300.099 69.871 216.21 298.848 71.0721 216.973 
297.583 72.041 217.45 296.379 72.7951 217.637 312.433 52.676 241.695 
312.17 50.6304 241.62 311.75 48.6233 241.558 311.21 46.6566 241.505 
310.571 44.7202 241.458 309.832 42.8433 241.415 308.993 40.9982 241.38 
308.077 39.1762 241.345 312.635 56.1091 243.373 312.645 57.434 244.965 
312.519 58.7306 246.566 312.271 59.9865 248.17 311.901 61.1927 249.769 
311.421 62.3554 251.369 310.873 63.3448 252.95 310.351 64.0672 254.548 
273.655 57.0155 200.835 272.962 55.1681 201.354 272.403 53.3186 201.982 
271.942 51.4938 202.716 271.591 49.7399 203.567 271.108 48.2396 204.706 
270.393 47.039 206.035 269.642 45.9895 207.3 289.827 61.2246 190.111 
288.217 62.0635 190.159 286.703 62.8058 190.487 285.309 63.4365 191.044 
284.304 64.2476 191.8 283.698 65.1195 192.598 283.429 66.0643 193.476 
283.466 67.0165 194.355 291.896 58.4209 190.592 292.223 56.6345 191.076 
292.468 54.9778 191.784 292.665 53.411 192.66 292.81 51.9016 193.667 
292.937 50.4705 194.794 293.017 49.0755 196.031 293.435 47.8637 197.339 
282.761 30.3227 219.877 284.772 30.8257 218.838 286.77 31.4123 217.836 
288.764 32.0698 216.867 290.732 32.8322 215.939 292.636 33.7379 215.092 
294.494 34.7813 214.307 283.08 56.4354 191.554 282.721 55.0059 192.171 
282.414 53.5617 192.906 282.094 52.1803 193.796 281.721 51.0491 194.645 
281.268 50.2589 195.368 284.639 58.4264 190.542 284.65 46.2213 197.577 
286.534 45.5881 198.022 288.381 45.0914 198.606 289.958 44.4882 199.506 
291.208 43.7177 200.676 292.171 42.7861 202.011 292.899 41.7673 203.457 
293.472 40.7129 204.983 296.887 26.7626 241.666 296.703 26.4875 243.718 
296.451 26.3255 245.757 296.153 26.273 247.795 295.817 26.3067 249.821 
295.425 26.4312 251.815 294.985 26.656 253.792 294.505 26.993 255.744 
298.379 28.1057 238.412 299.671 29.1821 237.216 300.878 30.3483 236.027 
302.018 31.5874 234.842 303.073 32.8796 233.658 304.06 34.2241 232.47 
304.801 35.4232 230.985 305.308 36.4188 229.27 306.491 38.1393 229.316 
307.55 39.9176 229.366 308.464 41.7645 229.425 309.245 43.644 229.493 
309.878 45.5697 229.573 310.372 47.5105 229.672 310.65 49.4072 229.386 
310.72 51.127 228.88 304.276 35.4506 227.748 303.135 34.605 226.257 
301.874 33.9434 224.835 300.503 33.4239 223.472 299.072 33.0516 222.176 
297.578 32.6899 221.153 296.074 32.2903 220.479 294.653 31.8558 220.184 
296.108 34.7469 215.598 297.68 34.7821 216.928 299.18 34.916 218.309 
300.747 35.3857 219.433 302.319 36.1857 220.281 303.781 37.2471 220.825 
305.054 38.5175 221.067 306.171 39.9394 221.106 294.155 35.7106 212.477 
293.798 36.6849 210.681 293.427 37.7311 208.927 302.302 41.3908 211.248 
300.784 41.0138 209.977 299.197 40.7516 208.781 297.574 40.5894 207.638 
304.209 41.1475 214.457 304.654 40.4607 216.332 291.877 39.6214 205.737 
290.269 38.6153 206.563 288.475 37.8834 207.178 286.584 37.374 207.669 
284.647 37.0329 208.111 282.69 36.8635 208.548 280.927 36.6133 209.266 
279.277 36.4524 209.966 292.58 26.4139 256.233 290.619 26.0253 256.653 
288.656 25.8372 256.988 286.701 25.8249 257.255 284.75 25.9722 257.449 
282.811 26.2157 257.601 281.071 26.5795 257.629 279.54 26.9347 257.593 
296.006 28.0034 256.798 297.431 29.1074 257.828 298.801 30.2875 258.843 
307.437 38.3506 238.854 306.79 37.5391 236.361 307.676 38.144 243.803 
307.176 37.1778 246.261 306.578 36.2818 248.715 305.857 35.4795 251.146 
304.999 34.8034 253.546 304.221 34.4698 255.982 268.38 46.9714 208.442 
267.269 47.9434 209.704 266.268 48.8924 211.064 270.385 44.2202 207.471 
295.575 73.1811 219.213 294.782 73.4976 220.87 295.967 73.075 215.844 
295.511 73.3241 214.013 295.07 73.4843 212.159 294.569 73.5582 210.283 
294.434 73.3845 208.393 294.484 73.0889 206.63 295.292 48.438 197.799 
297.007 49.138 198.432 298.565 49.9141 199.206 299.917 50.7766 200.108 
301.047 51.6935 201.142 301.987 52.6205 202.273 302.635 53.6168 203.182 
303.006 54.6283 203.751 310.667 62.6142 255.886 310.864 61.1265 257.2 
309.49 65.8722 254.66 285.099 67.793 194.044 286.75 68.3867 193.904 
288.412 68.8132 193.949 290.089 69.0749 194.125 291.676 69.1999 194.494 
292.808 69.3633 195.083 293.516 69.6274 195.762 293.791 69.9898 196.454 
282.242 67.1793 195.727 281.142 67.2179 197.185 310.875 52.6879 230.156 
310.989 54.2168 231.475 310.483 50.9307 226.891 310.193 50.7533 224.889 
309.85 50.547 222.889 309.429 50.3601 220.9 308.919 50.1641 218.938 
308.352 49.8825 217.063 307.75 49.4864 215.321 293.613 32.2443 218.618 
294.312 30.9511 221.874 293.948 30.0963 223.595 293.561 29.2906 225.362 
293.151 28.539 227.171 292.751 27.835 229.027 292.459 27.1797 230.868 
292.36 26.6276 232.666 294.688 69.7599 196.819 293.11 70.499 196.794 
292.288 70.9698 197.194 291.425 71.41 197.747 290.533 71.7745 198.454 
289.606 72.091 199.297 288.615 72.1452 199.765 287.545 71.9982 199.956 
286.504 71.6446 199.846 303.704 54.8338 205.358 304.404 54.9823 207.046 
302.527 55.6733 202.401 301.981 56.7511 201.015 301.367 57.8598 199.618 
300.674 59.0002 198.249 299.895 60.1491 196.928 299.024 61.0497 195.718 
307.017 40.5415 222.863 307.705 41.1961 224.63 278.759 26.4464 256 
277.988 26.0542 254.351 277.245 25.769 252.643 276.913 25.4422 250.879 
276.997 25.0985 249.124 277.412 24.7714 247.447 278.173 24.459 245.883 
279.185 24.1909 244.656 302.814 33.0996 256.537 305.218 35.9897 256.996 
280.859 23.9318 245.69 282.552 23.7415 246.723 284.244 23.6712 247.761 
285.927 23.7211 248.785 287.608 23.9219 249.8 289.335 24.2379 250.426 
290.982 24.596 250.65 278.757 24.3137 242.734 286.773 71.0502 198.23 

POLYGONS 562 1122
OFFSETS vtktypeint64
0 2 4 6 8 10 12 14 16 
18 20 22 24 26 28 30 32 34 
36 38 40 42 44 46 48 50 52 
54 56 58 60 62 64 66 68 70 
72 74 76 78 80 82 84 86 88 
90 92 94 96 98 100 102 104 106 
108 110 112 114 116 118 120 122 124 
126 128 130 132 134 136 138 140 142 
144 146 148 150 152 154 156 158 160 
162 164 166 168 170 172 174 176 178 
180 182 184 186 188 190 192 194 196 
198 200 202 204 206 208 210 212 214 
216 218 220 222 224 226 228 230 232 
234 236 238 240 242 244 246 248 250 
252 254 256 258 260 262 264 266 268 
270 272 274 276 278 280 282 284 286 
288 290 292 294 296 298 300 302 304 
306 308 310 312 314 316 318 320 322 
324 326 328 330 332 334 336 338 340 
342 344 346 348 350 352 354 356 358 
360 362 364 366 368 370 372 374 376 
378 380 382 384 386 388 390 392 394 
396 398 400 402 404 406 408 410 412 
414 416 418 420 422 424 426 428 430 
432 434 436 438 440 442 444 446 448 
450 452 454 456 458 460 462 464 466 
468 470 472 474 476 478 480 482 484 
486 488 490 492 494 496 498 500 502 
504 506 508 510 512 514 516 518 520 
522 524 526 528 530 532 534 536 538 
540 542 544 546 548 550 552 554 556 
558 560 562 564 566 568 570 572 574 
576 578 580 582 584 586 588 590 592 
594 596 598 600 602 604 606 608 610 
612 614 616 618 620 622 624 626 628 
630 632 634 636 638 640 642 644 646 
648 650 652 654 656 658 660 662 664 
666 668 670 672 674 676 678 680 682 
684 686 688 690 692 694 696 698 700 
702 704 706 708 710 712 714 716 718 
720 722 724 726 728 730 732 734 736 
738 740 742 744 746 748 750 752 754 
756 758 760 762 764 766 768 770 772 
774 776 778 780 782 784 786 788 790 
792 794 796 798 800 802 804 806 808 
810 812 814 816 818 820 822 824 826 
828 830 832 834 836 838 840 842 844 
846 848 850 852 854 856 858 860 862 
864 866 868 870 872 874 876 878 880 
882 884 886 888 890 892 894 896 898 
900 902 904 906 908 910 912 914 916 
918 920 922 924 926 928 930 932 934 
936 938 940 942 944 946 948 950 952 
954 956 958 960 962 964 966 968 970 
972 974 976 978 980 982 984 986 988 
990 992 994 996 998 1000 1002 1004 1006 
1008 1010 1012 1014 1016 1018 1020 1022 1024 
1026 1028 1030 1032 1034 1036 1038 1040 1042 
1044 1046 1048 1050 1052 1054 1056 1058 1060 
1062 1064 1066 1068 1070 1072 1074 1076 1078 
1080 1082 1084 1086 1088 1090 1092 1094 1096 
1098 1100 1102 1104 1106 1108 1110 1112 1114 
1116 1118 1120 1122 
CONNECTIVITY vtktypeint64
0 1 1 2 2 3 2 4 3 
5 5 6 6 7 7 8 8 9 
3 10 10 11 11 12 12 13 13 
14 4 15 15 16 16 17 17 18 
18 19 19 20 20 21 4 22 22 
23 23 24 24 25 25 26 26 27 
27 28 9 29 29 30 30 28 9 
31 31 32 32 33 33 34 34 35 
35 36 36 37 28 38 38 39 39 
40 40 41 41 42 42 43 43 44 
28 30 21 45 45 46 46 47 47 
48 21 49 49 50 50 51 51 52 
52 53 53 54 54 55 55 56 14 
57 57 58 58 59 59 60 60 61 
61 62 62 63 63 64 14 65 65 
66 64 67 67 68 68 69 69 70 
70 71 71 72 72 73 73 74 64 
75 75 76 76 77 77 78 78 79 
79 80 80 81 56 82 82 83 83 
84 84 85 85 86 86 87 87 88 
88 89 56 90 90 91 91 92 92 
93 93 94 94 95 95 96 96 97 
44 98 98 99 99 100 100 101 101 
102 102 103 103 104 104 50 44 105 
105 106 106 107 107 108 108 109 109 
110 110 111 111 112 37 113 113 114 
114 115 115 116 116 117 117 118 118 
119 119 120 37 121 121 122 122 123 
123 124 124 125 125 74 89 126 126 
127 127 128 128 129 129 130 130 131 
131 132 89 133 133 134 134 135 135 
136 136 137 137 138 138 139 139 140 
112 141 141 142 142 143 143 144 144 
145 145 146 146 147 147 148 112 149 
149 150 150 151 151 152 152 153 153 
154 154 155 155 156 97 157 157 158 
158 159 159 160 160 161 161 162 162 
163 163 164 97 108 120 165 165 166 
166 167 167 168 168 169 169 170 170 
171 171 172 120 173 173 174 174 175 
175 176 176 177 177 178 178 179 179 
180 74 125 74 181 181 182 182 183 
183 184 184 185 185 186 186 187 187 
188 188 189 189 190 190 191 191 192 
192 193 193 194 187 195 195 196 196 
197 197 198 198 199 199 200 200 201 
180 202 202 203 203 204 204 205 205 
206 206 207 207 208 208 209 180 210 
210 211 211 212 212 213 213 214 214 
215 215 216 216 217 156 218 218 219 
219 220 220 221 221 222 222 223 223 
224 156 225 225 226 226 227 227 228 
228 229 229 230 230 31 172 222 172 
231 231 232 232 233 233 234 234 235 
235 236 236 237 237 238 148 239 239 
240 240 241 241 242 242 243 243 244 
244 245 245 246 148 247 247 248 248 
249 249 250 250 251 251 252 252 253 
253 254 164 255 255 256 256 257 257 
258 258 259 259 260 260 261 261 88 
164 262 262 263 263 244 140 264 264 
265 265 266 266 267 267 268 268 269 
269 270 140 271 271 272 272 273 273 
246 194 216 194 274 274 275 275 276 
276 277 277 278 278 279 279 280 280 
281 217 193 217 282 282 283 283 284 
284 285 285 286 286 287 287 288 288 
289 201 290 290 291 291 292 292 293 
293 294 294 295 295 296 296 297 201 
298 298 299 299 300 300 301 301 302 
302 303 303 304 304 305 224 306 306 
307 307 308 308 309 309 310 310 311 
311 312 312 313 224 232 209 314 314 
315 315 316 316 317 317 318 318 319 
319 320 320 321 209 322 322 323 323 
324 324 325 325 326 326 327 327 328 
328 329 246 273 246 330 330 331 331 
332 332 333 333 334 334 335 335 336 
238 337 337 338 338 339 339 340 340 
341 341 342 342 254 238 343 343 315 
254 344 344 345 345 346 346 347 347 
348 348 349 349 350 350 351 254 342 
270 352 352 353 353 354 354 355 355 
356 356 357 357 358 358 359 270 360 
360 361 361 362 362 363 363 364 364 
365 365 366 366 367 367 368 368 369 
369 370 370 371 371 372 372 373 373 
374 374 375 367 376 376 377 377 378 
378 379 379 380 380 381 381 382 382 
383 336 384 384 385 385 386 386 387 
387 388 388 389 389 390 390 391 336 
392 392 393 393 394 394 351 281 395 
395 396 396 397 397 398 398 351 281 
399 399 400 400 391 351 401 401 402 
402 403 403 404 404 405 405 406 406 
407 407 408 351 398 359 409 409 410 
410 411 411 412 412 413 413 414 414 
415 415 416 359 417 417 418 418 419 
297 420 420 421 421 366 297 422 422 
423 423 424 424 425 425 426 426 427 
313 428 428 429 429 430 430 149 313 
431 431 146 289 432 432 433 433 123 
289 434 434 435 435 436 436 437 437 
438 438 439 439 175 329 347 329 440 
440 441 441 442 442 443 443 444 444 
445 445 446 446 447 305 448 448 449 
305 450 450 81 321 451 451 452 452 
453 453 454 454 455 455 456 456 457 
457 458 321 459 459 460 460 169 375 
461 461 462 462 197 375 463 463 464 
464 465 465 466 466 467 467 468 468 
469 469 277 383 470 470 334 383 471 
471 472 472 473 473 474 474 475 475 
476 476 477 477 267 458 478 478 178 
458 479 479 480 480 481 481 482 482 
483 483 484 484 485 485 486 447 487 
487 488 488 274 447 489 489 490 490 
491 491 492 492 493 493 494 494 205 
391 495 495 496 496 370 391 400 416 
497 497 498 498 499 499 500 500 501 
501 502 502 503 503 504 408 239 408 
241 427 505 505 419 427 506 504 507 
507 508 508 509 509 510 510 511 511 
512 512 513 513 357 504 514 514 135 
486 166 486 515 515 452 
POINT_DATA 516
FIELD FieldData 12
d1 1 516 double
16.62301445 11.724035263 6.9282031059 13.783857346 0 16.946134567 19.946134567 22.946134567 25.946134567 
24.106822968 16.783857346 19.783857346 22.783857346 25.612283707 28.440710068 2.2360680103 4.2360677719 6.2360677719 
7.9681186676 9.9681186676 12.20418644 14.20418644 2.2360680103 4.4721360207 6.7082042694 8.9442720413 11.180339813 
13.416407585 15.416407585 22.106822968 20.106822968 30.946134567 32.946136475 34.946136475 37.1822052 39.418273926 
41.654342651 43.654342651 17.652475357 19.652475357 21.652475357 23.888544083 25.888544083 27.888544083 29.888544083 
16.204185486 18.204185486 20.204185486 22.204185486 15.936237335 17.668287277 19.400337219 21.400337219 23.400337219 
25.400337219 27.400337219 29.132387161 30.17276001 31.904809952 33.636859894 35.368911743 37.100963593 38.833015442 
40.24723053 41.661445618 30.17276001 32.17276001 43.661445618 45.661445618 47.661445618 49.661445618 51.661445618 
53.661445618 55.661445618 56.187583923 43.393497467 44.807712555 46.221927643 47.636142731 49.050357819 50.464572906 
51.878787994 30.546600342 32.278652191 34.010704041 35.424919128 36.839134216 38.571186066 39.985401154 41.399616241 
30.864437103 32.596488953 34.328540802 36.060592651 37.792644501 39.52469635 41.256748199 42.737812042 31.620594025 
31.124368668 29.392318726 27.660268784 25.928218842 24.1961689 22.464118958 31.888544083 33.888542175 35.620594025 
37.352645874 38.766860962 40.18107605 41.595291138 43.009506226 45.654342651 47.654342651 49.654342651 51.654342651 
53.654342651 55.654342651 57.654342651 59.654342651 45.386394501 47.11844635 48.850498199 50.582550049 52.314601898 
43.399616241 45.399616241 47.399616241 49.131668091 50.86371994 52.59577179 54.327823639 43.131668091 44.86371994 
46.59577179 48.327823639 50.059875488 51.791927338 53.523979187 55.256031036 44.741558075 46.473609924 47.887825012 
49.3020401 51.034091949 52.448307037 53.862522125 55.276737213 45.009506226 46.741558075 48.473609924 50.205661774 
50.825878143 49.093826294 47.679611206 45.947559357 44.469863892 45.884078979 47.616130829 49.030345917 50.444561005 
52.176612854 53.908664703 55.322879791 61.386394501 62.800609589 64.532661438 66.264709473 65.621711731 63.889659882 
62.157608032 60.743392944 61.386394501 63.11844635 64.532661438 65.946876526 66.946876526 68.361091614 69.361091614 
70.361091614 58.187583923 60.187583923 62.187583923 64.187583923 66.187583923 68.187583923 69.919631958 71.919631958 
73.919631958 75.919631958 75.962440491 73.962440491 71.962440491 73.962440491 71.651679993 73.383728027 75.383728027 
77.383728027 76.202682495 73.96661377 71.730545044 72.093139648 73.507354736 74.921569824 75.921569824 77.335784912 
78.335784912 79.335784912 79.69278717 72.093139648 73.507354736 74.921569824 73.564552307 72.150337219 70.736122131 
69.004074097 67.272026062 47.947559357 49.947559357 51.947559357 53.947559357 55.947559357 57.947559357 59.947559357 
43.947559357 41.947559357 39.947559357 38.215507507 36.483455658 35.06924057 62.475444794 64.207496643 65.621711731 
67.035926819 68.450141907 69.864356995 70.864356995 70.864356995 56.690952301 58.42300415 60.155056 61.887107849 
63.619159698 64.800102234 66.532150269 66.823791504 56.690952301 58.105167389 59.837219238 61.837219238 63.837219238 
65.837219238 67.837219238 69.569267273 55.068126678 53.336074829 51.60402298 49.87197113 48.139919281 46.407867432 
44.675815582 57.322879791 59.322879791 57.256031036 59.256031036 61.256031036 63.492099762 65.492095947 67.492095947 
69.492095947 57.256031036 59.256031036 61.256031036 75.962440491 77.962440491 79.962440491 81.694488525 83.42653656 
85.158584595 86.572799683 86.076637268 65.539978027 63.807926178 62.39371109 60.979496002 59.565280914 58.151065826 
57.151065826 56.151065826 73.730545044 75.730545044 77.730545044 79.462593079 81.194641113 82.926689148 84.658737183 
86.390785217 69.998497009 68.266448975 66.53440094 64.802352905 63.070301056 61.338249207 59.924034119 58.509819031 
61.679611206 63.411663055 65.143714905 66.875762939 68.607810974 68.825157166 67.410942078 58.652496338 78.278572083 
76.864356995 75.767974854 74.767974854 73.767974854 73.767974854 73.767974854 73.767974854 81.424835205 83.15688324 
84.571098328 85.985313416 87.71736145 89.449409485 90.863624573 92.277839661 70.182434082 72.418502808 74.418502808 
76.150550842 77.882598877 79.614646912 81.614646912 71.864356995 73.278572083 74.69278717 74.442253113 73.442253113 
73.442253113 71.864356995 82.297821045 83.377189636 81.645141602 80.230926514 78.816711426 77.816711426 76.084663391 
74.352615356 71.492095947 73.492095947 74.587028503 72.587028503 70.587028503 68.854980469 70.587028503 72.319076538 
71.224143982 72.956192017 74.688240051 76.420288086 78.152336121 79.566551208 81.298599243 96.390518188 95.922279358 
93.922279358 92.190231323 89.908958435 88.726135254 86.994087219 85.262039185 83.847824097 94.658470154 92.926422119 
91.194374084 89.780158997 88.048110962 86.316062927 84.901847839 78.722427368 83.346694946 85.078742981 86.810791016 
88.54283905 89.957054138 91.689102173 93.103317261 94.835365295 82.880493164 81.148445129 79.148445129 84.344589233 
82.612541199 80.880493164 79.148445129 89.719062805 91.45111084 72.620567322 70.888519287 69.156471252 67.424423218 
65.692375183 63.960323334 62.228271484 60.814056396 74.051124573 74.594314575 72.862266541 71.130218506 69.398170471 
67.666122437 65.934074402 64.519859314 74.319076538 76.319076538 78.051124573 88.840278625 91.289772034 89.03653717 
91.486030579 91.465049744 89.228981018 86.992912292 84.756843567 60.066711426 61.480926514 61.754085541 56.920444489 
54.736850739 53.322635651 57.883117676 59.615169525 61.347221375 63.079273224 64.811325073 66.543373108 91.229667664 
89.815452576 88.401237488 87.401237488 85.9870224 84.9870224 84.9870224 83.9870224 60.24187088 61.973922729 
56.777767181 74.871681213 73.457466125 74.871681213 74.898414612 73.484199524 72.484199524 72.484199524 69.043251038 
72.353759766 70.621711731 82.115776062 80.383728027 85.579872131 87.579872131 89.579872131 90.763618469 89.031570435 
87.2995224 85.567474365 80.454475403 77.30821228 75.893997192 74.161949158 72.429901123 70.697853088 68.965805054 
67.233757019 69.043251038 69.043251038 69.043251038 69.043251038 69.043251038 69.043251038 69.043251038 68.043251038 
67.043251038 82.572807312 81.158592224 85.401237488 86.063194275 84.648979187 83.234764099 81.820549011 80.820549011 
98.082138062 96.880645752 63.105644226 61.691429138 60.27721405 58.545162201 56.813110352 55.398895264 53.984680176 
52.570465088 83.342628479 86.488891602 54.302516937 56.034568787 57.766620636 59.498672485 61.230724335 62.644939423 
64.059150696 50.838413239 68.457466125 
d2 1 516 double
16.550466537 11.651486397 6.8556547165 0 13.783857346 3.1622776985 6.1622776985 9.1622772217 12.162277222 
15.162277222 3 6 9 11.828427315 14.65685463 16.019926071 18.019926071 20.019926071 
21.751976013 23.751976013 25.988044739 27.988044739 16.019926071 18.255994797 20.492063522 22.728132248 24.964200974 
25.852693558 23.852693558 17.162277222 19.162277222 17.162277222 19.162277222 21.162277222 23.398345947 25.634414673 
27.870483398 29.870483398 26.088762283 28.088762283 30.088762283 32.324829102 34.324829102 36.324829102 38.324829102 
29.988044739 31.988044739 33.988044739 35.988044739 29.720094681 31.452144623 33.184196472 35.184196472 37.184196472 
39.184196472 41.184196472 42.916248322 16.388904572 18.120954514 19.853004456 21.585054398 23.31710434 25.049154282 
26.463367462 27.877580643 16.388904572 18.388904572 29.877580643 31.877580643 33.877578735 35.877578735 37.877578735 
39.877578735 41.877578735 42.403720856 29.609630585 31.023843765 32.438056946 33.852272034 35.266487122 36.680702209 
38.094917297 44.330463409 46.062515259 47.794567108 49.208782196 50.622997284 52.355049133 53.769264221 55.183479309 
44.648300171 46.38035202 48.11240387 49.844455719 51.576507568 53.308559418 52.906150818 51.174098969 40.056880951 
41.7889328 43.176185608 41.444133759 39.712081909 37.98003006 36.24797821 40.324829102 42.324829102 44.056880951 
45.7889328 47.203147888 48.617362976 47.384437561 45.970222473 31.870483398 33.870483398 35.870483398 37.870483398 
39.870483398 41.870483398 43.870483398 45.870483398 31.60253334 33.334583282 35.066635132 36.798686981 38.530738831 
57.183479309 59.183479309 61.183479309 62.915531158 64.647583008 66.379631042 68.111679077 56.915531158 58.647583008 
60.379634857 62.111686707 63.843738556 65.575790405 67.30783844 69.039886475 47.702274323 49.434326172 50.84854126 
52.262756348 53.994808197 55.409023285 56.823238373 58.237453461 43.970222473 42.238170624 40.506118774 38.774066925 
37.042015076 35.309963226 33.895748138 32.163696289 52.906150818 54.320365906 56.052417755 57.466632843 58.880847931 
60.61289978 62.34495163 63.759166718 47.602535248 49.016750336 50.748802185 52.480854034 51.837844849 50.105792999 
48.37374115 46.959526062 47.602535248 49.334587097 50.748802185 52.163017273 53.163017273 54.577232361 55.577232361 
56.577232361 44.403720856 46.403720856 48.403720856 50.403720856 52.403720856 54.403720856 56.135772705 58.135772705 
60.135772705 62.135772705 62.178581238 60.178581238 58.178581238 60.178581238 57.867824554 59.599876404 61.599876404 
63.599876404 62.418827057 60.182758331 57.946689606 58.30928421 59.723499298 61.137714386 62.137714386 63.551929474 
64.551925659 65.551925659 65.908920288 58.30928421 59.723499298 61.137714386 59.780700684 58.366485596 56.952270508 
55.220218658 53.488166809 34.163696289 36.163696289 38.163696289 40.163696289 42.163696289 44.163696289 46.163696289 
30.163696289 28.163696289 26.163696289 24.431646347 22.699596405 21.285383224 48.691577911 50.423629761 51.837844849 
53.252059937 54.666275024 56.080490112 57.080490112 57.080490112 59.651668549 61.383720398 63.115772247 64.847824097 
66.579872131 68.311920166 74.968444824 76.382659912 59.651668549 61.065883636 62.797935486 64.797935486 66.797935486 
68.797935486 68.513954163 66.781906128 65.491218567 67.119934082 65.387886047 63.655834198 61.923782349 60.191730499 
58.45967865 65.759170532 67.759170532 71.039886475 73.039886475 75.039886475 77.2759552 79.2759552 81.2759552 
83.2759552 71.039886475 73.039886475 75.039886475 62.178581238 64.178581238 66.178581238 67.910629272 69.642677307 
71.374725342 72.78894043 74.203155518 51.75611496 50.02406311 48.609848022 47.195632935 45.781417847 44.367202759 
43.367202759 42.367202759 59.946689606 61.946689606 63.946689606 65.678741455 67.41078949 69.142837524 70.874885559 
72.606933594 56.214637756 54.482585907 52.750534058 51.018482208 49.286430359 47.55437851 46.140163422 44.725948334 